   * xtb version 6.7.1 (edcfbbe) compiled by 'albert@albert-system' on 2024-07-22

   ID    Z sym.   atoms
    1    6 C      1-6
    2    8 O      7-11, 16, 25, 28, 31, 34, 37, 40, 43
    3    1 H      12-15, 17-24, 26, 27, 29, 30, 32, 33, 35, 36, 38, 39, 41,
                  42, 44, 45

          program call               : /home/ubuntu/software/xtb-dist/bin/xtb aa.xyz --opt
          :  Hamiltonian                  GFN2-xTB          :
 * total energy  :   -78.8581200 Eh     change       -0.1058510E-08 Eh
 * total energy  :   -78.8807058 Eh     change       -0.2258583E-01 Eh
 * total energy  :   -78.8894987 Eh     change       -0.8792917E-02 Eh
 * total energy  :   -78.8951034 Eh     change       -0.5604665E-02 Eh
 * total energy  :   -78.8989660 Eh     change       -0.3862605E-02 Eh
 * total energy  :   -78.9016653 Eh     change       -0.2699311E-02 Eh
 * total energy  :   -78.9035176 Eh     change       -0.1852269E-02 Eh
 * total energy  :   -78.9049157 Eh     change       -0.1398191E-02 Eh
 * total energy  :   -78.9062493 Eh     change       -0.1333528E-02 Eh
 * total energy  :   -78.9077511 Eh     change       -0.1501793E-02 Eh
 * total energy  :   -78.9237433 Eh     change       -0.1819199E-04 Eh
 * total energy  :   -78.9237570 Eh     change       -0.1363441E-04 Eh
 * total energy  :   -78.9237710 Eh     change       -0.1399597E-04 Eh
 * total energy  :   -78.9237766 Eh     change       -0.5636782E-05 Eh
 * total energy  :   -78.9237838 Eh     change       -0.7183938E-05 Eh
 * total energy  :   -78.9237891 Eh     change       -0.5327362E-05 Eh
 * total energy  :   -78.9237957 Eh     change       -0.6607046E-05 Eh
 * total energy  :   -78.9237937 Eh     change        0.2035024E-05 Eh
 * total energy  :   -78.9237984 Eh     change       -0.4752157E-05 Eh
   *** GEOMETRY OPTIMIZATION CONVERGED AFTER 75 ITERATIONS ***

 final structure:
================
45
 xtb: 6.7.1 (edcfbbe)
C            3.05745198636387       -0.36846832654552       -0.57468335302796
C            1.80137113800954        0.41094139965663       -0.17078566991405
C            0.52895158334528       -0.30920353583426       -0.67242998115858
C           -0.71755184162371        0.60398507456197       -0.49915706235446
C           -1.98872027469824       -0.24167416430018       -0.28014020091119
C           -3.23401244314413        0.55178943635715       -0.53959123594522
O            4.21999936362371        0.22639213365661       -0.06413546750491
O            1.91252738064631        1.71350993633554       -0.71928864213135
O            0.42271545608025       -1.56580520539694       -0.04244255035536
O           -1.98594264160092       -0.71423419332650        1.05553257225579
O           -4.12351551015827        0.62488316323264        0.26726022371749
H            3.10236317715333       -0.43128097841467       -1.67018006764994
H            3.00648770005348       -1.37590498592809       -0.15999030675136
H            1.77021298410533        0.47316850000022        0.92551944854460
H            0.64392934735573       -0.50801318050066       -1.74437981789294
O           -0.56756279530635        1.51398187981929        0.56715135704211
H           -1.99290889279323       -1.08644931728606       -1.00128986906637
H           -3.27569165409366        1.04040987928006       -1.52396619332488
H            4.19376060566860        1.16083720564189       -0.30435388863523
H            1.18582540585914        2.23826541852267       -0.35625910040516
H           -0.22002710635115       -1.51581642869666        0.67875367647868
H           -2.88600185332310       -0.56852949855920        1.39367449124134
H           -0.83782846760110        1.20568724647728       -1.40476935301869
H           -0.80965688881702        1.04176673722367        1.37860956148749
O           -1.76469792706245       -0.55926811394773       -4.77591698187043
H           -2.55185762399117       -0.35900934839830       -5.28328736854129
H           -1.47068422434122        0.28100252917540       -4.35067999602327
O           -1.91490167370735       -2.23970104499337       -2.53634767899762
H           -1.92465031235313       -1.70135619402914       -3.34114855107870
H           -1.04663510284885       -2.67646047250027       -2.51158637936345
O           -0.95341496764783        1.71481293661333       -3.64593881477494
H            0.03944955366429        1.63816661781495       -3.61882776769128
H           -1.13472174933223        2.52273396509319       -4.12893034313407
O            0.31320665504147       -2.27792230369766       -5.28828088783032
H            0.12147212449726       -3.01830638972184       -4.70325739063283
H           -0.44844246696974       -1.67515849863714       -5.22386795609608
O            0.72948242564899       -3.12571306698048       -2.38659911486542
H            1.39819814997134       -2.53056377703884       -2.75482067652593
H            0.70168391939767       -2.92441183720883       -1.44212434011709
O            2.24715639433108       -1.17312268140683       -3.88302105104620
H            1.55605569098924       -1.51801533115376       -4.50766714370886
H            3.09256101705582       -1.36515825528902       -4.29200081564443
O            1.65371979506530        1.48721926495683       -3.49913560464377
H            1.90443116236040        0.56224044805834       -3.68131983359101
H            1.87408070151384        1.64634455728479       -2.56611337451203

          :  Hamiltonian                  GFN2-xTB          :
         :: total energy             -78.923798446895 Eh    ::
         :: gradient norm              0.000344628684 Eh/a0 ::
         :: HOMO-LUMO gap              3.513025560642 eV    ::
         :: SCC energy               -79.466310316068 Eh    ::
         :: -> dispersion             -0.035014093177 Eh    ::
         :: repulsion energy           0.542511869173 Eh    ::

    * Orbital Energies and Occupations

         #    Occupation            Energy/Eh            Energy/eV
      -------------------------------------------------------------
         1        2.0000           -0.7383916             -20.0927
       ...           ...                  ...                  ...
        52        2.0000           -0.4599686             -12.5164
        53        2.0000           -0.4579017             -12.4601
        54        2.0000           -0.4561515             -12.4125
        55        2.0000           -0.4538751             -12.3506
        56        2.0000           -0.4488861             -12.2148
        57        2.0000           -0.4481700             -12.1953
        58        2.0000           -0.4429661             -12.0537
        59        2.0000           -0.4359386             -11.8625
        60        2.0000           -0.4347979             -11.8315
        61        2.0000           -0.4251741             -11.5696
        62        2.0000           -0.4153722             -11.3029
        63        2.0000           -0.4108962             -11.1811
        64        2.0000           -0.4087543             -11.1228 (HOMO)
        65                         -0.2796530              -7.6097 (LUMO)
        66                         -0.0298241              -0.8116
        67                         -0.0176402              -0.4800
        68                         -0.0074319              -0.2022
        69                          0.0184830               0.5029
        70                          0.0340840               0.9275
        71                          0.0435714               1.1856
        72                          0.0509083               1.3853
        73                          0.0569750               1.5504
        74                          0.0647200               1.7611
        75                          0.0768139               2.0902
       ...                                ...                  ...
       102                          0.5854312              15.9304
      -------------------------------------------------------------
                  HL-Gap            0.1291013 Eh            3.5130 eV

     #   Z          covCN         q      C6AA      α(0)
     1   6 C        3.676     0.063    19.739     6.365
     2   6 C        3.723     0.093    19.152     6.250
     3   6 C        3.723     0.071    19.501     6.306
     4   6 C        3.725     0.084    19.289     6.271
     5   6 C        3.724     0.059    19.691     6.336
     6   6 C        2.759     0.195    23.831     7.994
     7   8 O        1.656    -0.438    21.593     6.273
     8   8 O        1.655    -0.465    22.161     6.355
     9   8 O        1.655    -0.464    22.127     6.350
    10   8 O        1.654    -0.459    22.030     6.336
    11   8 O        0.857    -0.328    20.296     6.040
    12   1 H        0.923     0.046     2.376     2.410
    13   1 H        0.924     0.064     2.154     2.295
    14   1 H        0.923     0.040     2.451     2.448
    15   1 H        0.924     0.066     2.133     2.284
    16   8 O        1.655    -0.458    22.000     6.332
    17   1 H        0.921     0.128     1.553     1.949
    18   1 H        0.923     0.041     2.430     2.438
    19   1 H        0.805     0.303     0.712     1.325
    20   1 H        0.805     0.321     0.661     1.277
    21   1 H        0.805     0.329     0.640     1.256
    22   1 H        0.804     0.321     0.661     1.277
    23   1 H        0.924     0.075     2.028     2.227
    24   1 H        0.804     0.315     0.676     1.292
    25   8 O        1.607    -0.619    25.655     6.836
    26   1 H        0.806     0.286     0.765     1.374
    27   1 H        0.802     0.335     0.624     1.241
    28   8 O        1.608    -0.634    26.024     6.885
    29   1 H        0.804     0.301     0.718     1.331
    30   1 H        0.804     0.311     0.688     1.303
    31   8 O        1.606    -0.630    25.928     6.872
    32   1 H        0.801     0.337     0.620     1.237
    33   1 H        0.806     0.283     0.776     1.383
    34   8 O        1.609    -0.605    25.315     6.791
    35   1 H        0.805     0.309     0.694     1.308
    36   1 H        0.804     0.327     0.645     1.261
    37   8 O        1.609    -0.619    25.645     6.835
    38   1 H        0.804     0.309     0.694     1.308
    39   1 H        0.805     0.310     0.692     1.307
    40   8 O        1.606    -0.631    25.940     6.874
    41   1 H        0.801     0.338     0.616     1.234
    42   1 H        0.806     0.285     0.767     1.376
    43   8 O        1.609    -0.627    25.839     6.861
    44   1 H        0.804     0.319     0.667     1.283
    45   1 H        0.804     0.313     0.684     1.299

Wiberg/Mayer (AO) data.
largest (>0.10) Wiberg bond orders for each atom

     #   Z sym  total        # sym  WBO       # sym  WBO       # sym  WBO
 ---------------------------------------------------------------------------
     1   6 C    3.958 --     7 O    1.010     2 C    0.981    13 H    0.969
                            12 H    0.961
     2   6 C    3.949 --     1 C    0.981     8 O    0.981    14 H    0.961
                             3 C    0.959
     3   6 C    3.955 --     9 O    0.998     2 C    0.959     4 C    0.956
                            15 H    0.954
     4   6 C    3.954 --    16 O    0.999     3 C    0.956    23 H    0.952
                             5 C    0.946
     5   6 C    3.950 --     6 C    1.008    10 O    0.992     4 C    0.946
                            17 H    0.873
     6   6 C    3.914 --    11 O    1.894     5 C    1.008    18 H    0.934
     7   8 O    1.962 --     1 C    1.010    19 H    0.891
     8   8 O    1.982 --     2 C    0.981    20 H    0.869
     9   8 O    1.968 --     3 C    0.998    21 H    0.857
    10   8 O    1.971 --     5 C    0.992    22 H    0.858
    11   8 O    2.104 --     6 C    1.894
    12   1 H    0.998 --     1 C    0.961
    13   1 H    0.996 --     1 C    0.969
    14   1 H    0.998 --     2 C    0.961
    15   1 H    0.996 --     3 C    0.954
    16   8 O    1.971 --     4 C    0.999    24 H    0.871
    17   1 H    0.984 --     5 C    0.873
    18   1 H    0.998 --     6 C    0.934
    19   1 H    0.908 --     7 O    0.891
    20   1 H    0.897 --     8 O    0.869
    21   1 H    0.892 --     9 O    0.857
    22   1 H    0.897 --    10 O    0.858
    23   1 H    0.994 --     4 C    0.952
    24   1 H    0.900 --    16 O    0.871
    25   8 O    1.870 --    26 H    0.912    27 H    0.812
    26   1 H    0.918 --    25 O    0.912
    27   1 H    0.888 --    25 O    0.812
    28   8 O    1.843 --    29 H    0.871    30 H    0.860
    29   1 H    0.909 --    28 O    0.871
    30   1 H    0.903 --    28 O    0.860
    31   8 O    1.866 --    33 H    0.916    32 H    0.792
    32   1 H    0.886 --    31 O    0.792
    33   1 H    0.920 --    31 O    0.916
    34   8 O    1.900 --    35 H    0.898    36 H    0.849
    35   1 H    0.904 --    34 O    0.898
    36   1 H    0.893 --    34 O    0.849
    37   8 O    1.850 --    39 H    0.881    38 H    0.872
    38   1 H    0.904 --    37 O    0.872
    39   1 H    0.904 --    37 O    0.881
    40   8 O    1.865 --    42 H    0.914    41 H    0.797
    41   1 H    0.885 --    40 O    0.797
    42   1 H    0.919 --    40 O    0.914
    43   8 O    1.891 --    45 H    0.861    44 H    0.846
    44   1 H    0.898 --    43 O    0.846
    45   1 H    0.902 --    43 O    0.861
 ---------------------------------------------------------------------------

molecular dipole:
                 x           y           z       tot (Debye)
 q only:        0.172       0.619      -0.793
   full:       -0.194       1.086      -0.857       3.551

           -------------------------------------------------
          | TOTAL ENERGY              -78.923798446895 Eh   |
          | GRADIENT NORM               0.000344628684 Eh/α |
          | HOMO-LUMO GAP               3.513025560642 eV   |
           -------------------------------------------------

 * finished run on 2024/12/07 at 05:51:11.126
